LAMMPS data file from restart file: timestep = 1000000, procs = 4

3456 atoms

2 atom types

-1.1354768516176428e+00 3.9847476851615909e+01 xlo xhi
-1.1354768516176428e+00 3.9847476851615909e+01 ylo yhi
-1.1354768516176428e+00 3.9847476851615909e+01 zlo zhi

Masses

1 63.546
2 91.224

Atoms

1835 2 3.8958224445771393e+01 1.9162971276128079e+01 1.7769114076798624e+00 0 -2 2
2639 2 1.8794563359953965e+01 1.9107574785007408e+01 1.7625094551551300e+01 0 -1 -1
198 1 4.0910009111635466e+00 -2.8110105450876544e-01 3.4898477425351091e+00 -3 -1 1
1757 2 -7.9751272724965627e-02 1.9031537894923193e+01 5.6405241639598929e+00 0 3 -2
767 1 2.4218479851897207e+01 1.6200679737056852e+01 -1.1025458534131032e+00 -1 0 0
2026 2 -8.2156829387860730e-01 1.9143173834926497e+00 9.5094338896222474e-01 1 0 2
1349 1 2.0319840454183371e+01 -1.0047971041653541e+00 7.2777140061860379e+00 -1 -1 0
3257 2 1.8424005886949160e+00 4.0117291562254742e+00 3.1298214096947401e+00 2 0 0
703 1 6.7739644725883688e+00 7.5530036370301867e-01 6.8165604447478501e-01 -2 1 2
936 1 2.0201538823009866e+00 1.7579142078454502e+01 1.1981867807482461e+01 -2 0 0
748 1 1.3279874215830208e+01 2.3451166434885069e+00 3.0104295023807586e+00 1 -2 0
2327 2 8.6386948067155345e+00 2.6135477658443298e+00 1.5450928646435997e+00 -1 -1 0
669 1 8.6820188537852516e+00 3.9992912451253488e+00 5.5227029757197377e+00 -1 0 1
106 1 3.6188058825921814e+01 1.6496656227129971e+01 1.8412581138767241e+01 0 0 3
1612 1 6.9466057211924603e+00 4.0144406217571333e+00 2.7306453215104267e+00 -1 -1 0
1476 1 5.2457967850672746e+00 3.7451305830017718e+00 1.6350215120864315e+00 2 -1 2
732 1 3.9421443585191902e+00 2.3836353903315470e+00 2.9452908527517274e-01 -1 1 3
1994 2 1.0809246080547886e+01 1.3590391678083296e+00 6.9779257317295285e-01 -1 1 -2
1703 1 1.1924261996603226e+01 -2.6645284036087402e-01 2.4055525636180013e+00 -1 0 1
112 1 3.6078858012297763e+00 1.9309261407078925e+01 6.7858940022575789e+00 -1 -1 2
2647 2 1.2842618171499694e+01 2.7311167028324217e+00 2.7372270755901074e-01 0 1 2
1872 2 1.4118961160768837e+01 4.6371266974285854e+00 2.5009203992089475e+00 -1 3 0
1253 1 1.1387117613942793e+01 1.4181532037988616e+00 3.5419385711348292e+00 -2 2 1
868 1 1.1735253115036770e+01 5.6140868400261930e+00 5.2239270467023280e+00 0 1 0
7 1 1.6421515805574646e+01 1.6350989500437482e+01 1.8842166651354006e+01 0 0 -1
113 1 2.0367127974490376e+01 -6.1076741911965005e-01 1.6439661346176692e+01 1 0 3
53 1 1.5367418409094181e+01 1.1614984128248573e+00 1.5924346534534455e+00 -1 2 0
719 1 1.3874107903311286e+01 5.1464611151556170e+00 5.2582772057398266e+00 -1 1 1
1266 1 1.6875129111761780e+01 -4.0564795976580070e-01 2.3563417468931531e+00 0 0 2
3410 2 1.5125396081334941e+01 1.9195528382232744e+01 1.7295557935542416e+01 1 1 -1
3111 2 9.7821480084652972e+00 1.8606407755025383e+01 1.0611560059908545e+00 1 0 0
2171 2 1.9984067134487184e+01 2.0610208600506583e+00 6.4826160202725314e-01 -1 -1 2
2318 2 3.0425469366344906e+00 1.9143024948377917e+01 9.7703053679690228e+00 2 -1 -1
586 1 6.0454546315516797e+00 1.0599124474444981e+01 -5.7311582402776740e-01 2 0 1
2551 2 2.3090930393981676e+01 1.1409539896989749e+00 1.0052583187345117e+00 0 2 -1
666 1 1.9806867508082163e+01 -4.3737354272000983e-02 2.3324761954837094e+00 -1 2 -1
711 1 2.9018943877930322e+01 -9.5612001071181796e-01 1.5270874542738586e+01 0 0 -3
2079 2 2.9543868420787110e+01 3.1077253401170761e+00 2.3437363872439518e+00 -2 -1 2
786 1 2.8515930631835452e+01 1.4750824253951222e+00 4.1247539107226960e-01 3 1 2
90 1 2.4416466341283378e+01 4.1123621216592907e+00 -2.9781248202649202e-01 0 -2 -1
1855 2 3.8297179668782033e-01 1.1713500977524143e+01 -7.5733189160031311e-01 2 2 2
3081 2 2.6540604774117497e+01 -6.3172570533832684e-01 1.1776482960449273e+00 1 0 0
1996 2 2.6964756430452628e+01 3.9187929984418686e+00 3.4710113977738022e-01 -1 1 0
1057 1 3.4357773499421469e+01 1.5383133102884594e-01 -2.2996717594994331e-01 -1 1 0
598 1 3.1308610110753872e+01 1.7682903596836761e+00 4.7496928329201937e-01 -1 -1 2
293 1 5.4045552060120476e+00 1.6566110146324533e+01 1.8519078247162430e+01 -1 -1 -1
1354 1 3.2942296276186667e+01 3.6853971908205780e+00 2.6157125525217495e-01 1 0 0
1836 2 3.2297618230332930e+01 4.1669057012304211e+00 3.0019568038910931e+00 -1 0 -2
2625 2 3.1514533714372352e+01 5.0873993984172996e+00 6.5342254707972307e+00 2 -3 0
470 1 3.3448074042234268e+01 7.8817531803427965e-01 2.0421108283675085e+00 -4 4 -1
3047 2 3.6018997416162961e+01 1.3729482236429602e-01 2.3254253110080656e+00 0 0 0
431 1 3.5045997803492909e+01 2.4701363615091090e+00 7.9088917619841115e-01 0 1 0
1951 2 3.8507345648769515e+01 6.5072274045488721e-01 3.5052428294189211e+00 -1 0 0
1615 1 3.4727670558043641e+01 2.6540164095997367e+00 3.4664424357466208e+00 -2 -3 3
138 1 3.8751131977994689e+01 1.2225390343670992e+00 6.7285157042936072e+00 -2 1 1
501 1 3.7122608290496373e+01 3.8812836528679950e+00 6.7158246482334816e-02 -1 0 -1
3344 2 2.9997445285674553e+00 7.4265249071582886e+00 2.1282922926526155e+00 1 1 1
1440 1 3.2151764421752787e+01 -8.6517820105088905e-01 8.9320734443338656e-02 1 1 2
2324 2 1.3193775244127433e+00 9.6319414082609178e+00 2.1520010789942550e+00 0 -1 1
1094 1 7.3237169874867325e-01 6.4153998349946457e+00 3.1065912214552007e+00 -2 3 -1
2008 2 1.4133510460418259e+00 8.1056708353003284e+00 -3.3348218720141176e-01 0 0 1
3114 2 6.9554640782058357e+00 4.9458589588629822e+00 -2.9177959986806634e-01 0 -1 3
278 1 2.0738352789316941e+00 4.4049617136462818e+00 2.5842933193835771e-01 1 0 -1
2157 2 5.5527778567280510e+00 6.7437092844637183e+00 1.6502498372469376e+00 -2 1 0
1291 1 1.0598930414128137e+01 7.7618647582771398e+00 1.4352812129731580e+00 -1 0 0
2291 2 7.1575534363482731e+00 7.9256622923656757e+00 -3.3941294411609302e-01 -1 1 -2
339 1 7.3661155920281338e+00 5.8420869519102352e+00 6.4031336173598570e+00 1 1 0
2692 2 1.2424715151713935e+01 6.0501014065823728e+00 6.0194136914709917e-01 0 0 1
2804 2 9.5952734025142483e+00 5.9758727756539418e+00 3.2425456440624760e+00 -3 -1 1
2247 2 1.2716074046268821e+01 1.0021018082935615e+01 2.6182326762994110e+00 0 2 0
285 1 9.9736252519588113e+00 8.4077915423932215e+00 4.2190986807640130e+00 -1 1 4
599 1 1.1429230522159212e+01 4.3226307150663894e+00 2.2350650638815348e+00 2 3 1
299 1 3.4790608054291113e+01 -9.8081051126586538e-01 7.6848133745540164e+00 0 2 0
3450 2 9.8354878946365112e+00 5.3498969887595260e+00 -2.6847926259644550e-01 1 2 -1
1500 1 1.5252863398883484e+01 3.6510555521340571e+00 3.2710520414188471e-01 -1 2 2
2844 2 1.7318130953582560e+01 4.6697218386756276e+00 2.1083176000951633e+00 0 1 -2
2123 2 2.1196986111327195e+01 3.4805004517990454e+00 3.5100338013610362e+00 0 0 2
303 1 1.7192188343984022e+01 1.2752795380287263e+00 9.2643948909367335e-01 -1 -1 1
3225 2 -1.4035276832557175e-01 -7.9304739854629347e-01 2.5063463460411461e+00 0 0 0
318 1 1.9483680543151387e+01 5.0451592123450224e+00 9.1893047957544205e-01 -3 1 -1
1196 1 1.9314151549096959e+01 7.2849313585728073e+00 2.7130478638681432e-01 -1 -1 1
333 1 2.8163566392673236e+01 1.8389071405188972e+01 1.5146671086339492e-01 4 0 1
2046 2 2.2336357231721028e+01 5.0284985700186988e+00 1.0262998436792610e+00 0 0 1
583 1 1.8059398203516363e+01 1.2005546610478389e+01 3.3965082011836367e+00 -1 0 0
863 1 2.0994307802976333e+01 7.3994777965049998e+00 1.6310855412800724e+00 1 3 1
867 1 2.5994335187101292e+01 7.3263410738222916e+00 3.0988707077398958e+00 1 0 1
2221 2 2.3560285880810113e+01 7.7181353288917034e+00 -1.3769528156261368e-01 1 -1 0
3369 2 2.6263217957006109e+01 3.9437896029687654e+00 3.5329593178038996e+00 0 0 2
331 1 2.8055150395493261e+01 5.2145165553127244e+00 2.3535053429820803e+00 -2 1 -1
1755 2 2.6076612224308743e+01 9.5360200475081509e+00 6.1718341563724866e-01 0 1 2
1629 1 2.4197356559796447e+01 6.4316922653331350e+00 2.3852245553863316e+00 -2 2 0
656 1 2.4949629290871322e+01 -8.2306584678576922e-01 4.6875982080564942e+00 -1 1 1
2483 2 2.8647366692999586e+01 7.7877885948802223e+00 1.5719395128947982e+00 -2 -1 1
764 1 2.5715969392679551e+01 6.3952681416768282e+00 5.0575755724949301e-01 1 1 0
2695 2 3.0376394359906222e+01 6.0437116602816143e+00 3.8241762192789830e+00 -1 -1 1
716 1 1.6017250352950107e+01 1.8807496843280447e+01 6.2624762517591925e+00 1 1 3
516 1 3.1038563896317410e+01 4.9526753482545365e+00 8.7623399564134852e-01 -1 -1 -1
64 1 3.5069184339143220e+01 4.8406578251845200e+00 1.2516710372715143e+00 1 -1 1
3310 2 3.4400470339754648e+01 1.0174534458442986e+01 -4.9816864635953773e-01 -2 1 0
2828 2 3.2957151227860194e+01 6.8012491228200629e+00 1.7504775047909829e+00 -1 0 -2
3431 2 3.7982211806684646e+01 3.0121041984783599e+00 2.7946220237560935e+00 -2 1 -1
770 1 3.7543297743087862e+01 5.6105875542551980e+00 1.4006997106173840e+00 0 2 1
3319 2 3.5867673154691133e+01 7.9347107948401607e+00 6.6237952797846651e+00 0 0 0
832 1 3.9014461422675012e+01 2.8030136579724942e+00 5.2775752660622919e+00 -1 -2 -1
2055 2 3.3903535616995981e+01 9.2748118611157953e+00 2.7319078736969677e+00 -1 1 2
1180 1 3.1773429423618364e+01 9.7229325505640816e+00 -1.5737509941475780e-01 -1 -1 -1
3287 2 -6.7523796221585142e-01 8.8154394107007885e+00 4.1393839484841104e+00 0 1 0
505 1 -1.1211288954547602e+00 6.6757570978557714e+00 2.1040545577815046e+00 1 -1 1
123 1 7.2143909093574843e-01 1.2042584113932559e+01 2.5230987985760760e+00 1 1 0
623 1 5.1268602323650354e+00 7.5898651134617232e+00 4.2202214825841864e+00 0 0 3
3275 2 4.9496822801287426e+00 1.1904268980238106e+01 1.1275234856807810e+00 4 1 1
547 1 3.6541098791860955e+00 9.8008975056310739e+00 -6.3227020145912793e-01 2 0 1
1759 2 2.6349983216166617e+00 1.2511544066246447e+01 3.6856382801731735e+00 1 2 1
1686 1 4.1381313378747429e+00 1.4519643452363679e+01 1.4732165613052866e+00 1 1 1
3332 2 8.5786500604337732e+00 9.0462867068768631e+00 1.7714816768258261e+00 0 -2 0
2356 2 7.1972659080353854e+00 8.1874792170736672e+00 5.3359115324944604e+00 0 -1 -2
1352 1 1.1313184747497532e+01 1.3612435166474791e+01 2.7364680068539688e+00 1 -1 0
1458 1 3.9826300023764363e+00 9.8709232731286392e+00 2.6127905981519706e+00 0 -1 -2
618 1 1.8957777154622590e+01 1.8841846502067693e+01 1.0593696985824840e+01 -3 -1 1
1082 1 7.6342667643955835e+00 1.5151847216293753e+01 3.6231680453507140e+00 0 -1 -1
1812 2 6.6364848855391827e+00 1.4484225502888942e+01 1.0845504630174578e+00 -1 0 1
3417 2 1.7884663535333061e+01 1.8364454410213327e+01 -4.2979462298737503e-01 1 1 2
118 1 6.3098854918830138e+00 9.4818463325129372e+00 1.8316481699235436e+00 -1 -3 -1
680 1 1.2373296350748394e+01 9.2364761216699218e+00 -1.8789151237225232e-01 -2 -1 3
1707 1 1.1506744101233743e+01 1.6995875941263321e+01 2.8553164051710778e-01 1 2 2
907 1 8.9152918358644264e+00 1.0037192441325468e+01 5.3297548614915780e+00 -2 1 0
3054 2 1.2488594987827399e+01 1.2652122155463587e+01 -1.9617526841103305e-01 1 -1 1
1085 1 1.3638775381846846e+01 1.2500889185392664e+01 2.1142142536919009e+00 1 -1 1
2320 2 1.2974406089440992e+01 1.3450802839724616e+01 4.9080018878679876e+00 -1 0 1
1282 1 9.6216310037025359e+00 1.3683128278516708e+01 9.7052595018050969e-01 -1 -1 -1
2599 2 1.6910154069739104e+01 1.0235836021109039e+01 8.1509224391727852e-01 3 1 -1
36 1 1.4467247890077806e+01 1.0300187945487329e+01 2.1394372386357752e-01 0 -3 2
1909 2 1.9144161087885646e+01 9.5328355180793611e+00 -3.5917684125299543e-01 -1 0 -1
1069 1 1.5771610804721817e+01 5.4007223837691907e+00 -1.0531520019570317e+00 -2 1 0
2972 2 5.5981559492781434e+00 -9.7980938280004981e-01 1.1549496006330154e+01 2 -1 0
1964 2 2.1341651035351628e+01 9.8387318619443160e+00 2.2052194420176563e+00 -1 -1 -2
1524 1 1.9472312027367742e+01 5.8726563894998813e+00 3.0278030107041713e+00 0 2 -1
725 1 2.3794469577248801e+01 1.0571566307959467e+01 1.6517763142587865e+00 1 -2 -1
1495 1 2.2349321956744269e+01 1.2314634122764907e+01 2.3201979446809178e+00 1 0 0
2131 2 2.4712899424877762e+01 1.5209069237879969e+01 1.4911300009801285e+00 0 1 1
685 1 3.6339777856815800e+01 1.8900037780665652e+01 1.8032572130649378e+01 -2 0 0
1788 2 2.1739442934674329e+01 7.4295381024779701e+00 4.1148475853651654e+00 0 -1 0
2234 2 2.2548963757257908e+01 1.1173187447876739e+01 5.4681724748141356e+00 -1 2 0
296 1 2.5839874963305491e+00 1.9074171979695272e+01 2.2318139089070548e+00 1 -2 -1
107 1 1.1092458733989186e+01 1.8959520327338641e+01 1.8388940515900952e+01 0 2 -1
1075 1 2.0141335384734351e+01 6.1660837776320241e+00 1.8855858641548565e+01 -2 -1 -3
2769 2 2.5102216826865789e+01 1.2589997265046662e+01 3.5763474529581805e+00 0 0 3
2536 2 2.4608528021778124e+01 9.5426927532736343e+00 3.7534703563607250e+00 1 2 -1
1846 2 -3.6593783344632025e-01 1.8644495933687740e+01 9.5708383957494902e+00 0 2 1
1066 1 2.6447891516014490e+01 1.1823714694769503e+01 1.1039482893546957e+00 0 2 0
896 1 3.4999247849810487e+01 1.3610044746356156e+01 7.5427763958042937e-01 -1 1 2
2905 2 2.9004391759812503e+01 1.0673045420636329e+01 1.0903425873063259e+00 -1 -1 -2
1304 1 3.3277285204468555e+01 1.1800101348893396e+01 3.2009297892049897e+00 2 0 0
237 1 3.1285387286012831e+01 9.1987982084782640e+00 2.6000561486311908e+00 0 -1 -1
2243 2 7.5638218067337473e+00 1.9002384655984205e+01 1.0791508536849593e+01 0 -2 1
2332 2 2.8261695223306525e+01 1.2810893045001899e+01 2.9076087095176026e+00 -2 -1 0
136 1 3.0301418689918474e+01 1.3308903027102156e+01 9.6549608206526383e-01 -2 1 -1
2458 2 3.6045708936328580e+01 1.0947384005594886e+01 1.6611288110126692e+00 1 0 1
2286 2 1.1736321391083053e+00 1.4059300384525535e+01 8.1830944871816369e-01 0 2 -1
1963 2 3.5477613349739556e+01 1.3245957528576021e+01 3.6640259623273668e+00 0 -1 2
791 1 3.8249034316639793e+01 1.3401447678239101e+01 2.3327992791441150e+00 -3 2 2
532 1 3.8160192283999393e+01 8.4352180729604207e+00 2.4191050427627636e+00 -3 -3 4
2737 2 -2.8586818291765781e-01 1.4392335142949994e+01 3.7491068826555969e+00 2 -1 1
1799 2 -6.2472262756554786e-01 1.7643394129233791e+01 -1.8995523404624781e-01 -1 1 1
3002 2 5.6000917756839339e+00 1.3020769302501483e+01 3.6972035900859632e+00 3 1 2
640 1 1.3859449955947019e+01 -6.6168780017213846e-01 1.1528479439465977e+00 -1 0 2
2493 2 -1.6426719139127288e-01 1.7749814607852876e+01 2.9021007646827375e+00 -1 -1 1
1214 1 7.7608356133106469e+00 1.1831924870881455e+01 6.3284432392800194e-01 -1 -1 -2
2759 2 2.7714127713388317e+00 1.6937178304169752e+01 8.1253419044480157e-01 -2 1 1
2349 2 6.0012927748198601e+00 1.6943348090747168e+01 2.6152992251787808e+00 2 1 0
2609 2 8.2145609971957896e+00 1.2244792407823940e+01 3.0262123712940641e+00 2 1 -1
404 1 3.9806649258329232e+00 1.6775264176160420e+01 9.9244552604789007e+00 -2 -1 1
888 1 6.8690644192709165e+00 1.8432259436326639e+01 6.8864218326880113e+00 -2 1 2
538 1 5.9839247793769266e+00 1.8217457311252645e+01 -4.3855375203929059e-01 -1 0 1
98 1 1.0198169638345169e+01 1.4601565199714546e+01 5.1171555159781326e+00 -2 0 1
1791 2 7.9131484850285272e+00 1.8281396190681892e+01 3.2674645877581376e+00 0 1 -1
2703 2 2.7381614495519127e+01 6.0596303999302270e-02 1.6978156719865662e+01 1 1 0
3017 2 1.0067527548580561e+01 1.5862596930352062e+01 2.7001256468291883e+00 -1 1 1
2485 2 8.4130810087695167e+00 1.6485902360872423e+01 -9.1202062461779310e-02 0 -2 1
741 1 1.2148177077706999e+01 1.6575653066556043e+01 4.9457071486724260e+00 -1 -2 2
2151 2 -3.6284272217999480e-01 -7.7593085001682072e-01 9.6706641393308281e+00 0 1 -1
1614 1 1.2490325906979956e+01 1.5664227829172422e+01 1.5627668231978178e+00 4 -1 0
1391 1 5.5708677385617964e+00 1.8207676839243309e+01 8.5899292220616559e+00 -1 1 0
1905 2 1.6108625605645788e+01 1.2842638713090551e+01 2.3427631906927187e+00 -1 -1 1
434 1 1.4597823681799206e+01 1.4955106156468368e+01 9.6774614597723296e-03 1 0 0
3252 2 1.6711592569781697e+01 1.6833312588645221e+01 5.1682978021507253e+00 0 0 1
3006 2 1.7046314378735200e+01 1.4985594872340471e+01 -7.8567554421306407e-01 0 -1 2
3159 2 2.1824412651120792e+01 1.5904501441186842e+01 3.2086304106537353e+00 1 1 0
2179 2 1.4421947547725329e+01 3.1756150554018703e-01 1.8823212791474994e+01 1 1 0
3155 2 2.1224584633010330e+01 1.4472747554198929e+01 -1.1418072435473015e-01 -1 0 1
905 1 1.5436685469875634e+01 1.4971205188728234e+01 2.8663095012069268e+00 -2 0 -2
3314 2 2.7779620608818018e+01 6.2999283127124404e+00 -8.9559101371846472e-01 0 -1 1
2128 2 1.9026005008882137e+01 -4.7358701719469964e-01 1.2727125206201610e+01 -2 0 0
1333 1 3.3219588719176185e+00 1.4651350164008438e+01 -8.6924823366398418e-01 0 -2 2
2110 2 2.8080545964553007e+01 1.5926632052351266e+01 4.5938510834176318e+00 0 0 1
569 1 2.8312505963134672e+01 1.2911625260733150e+01 -7.0711641728604691e-01 -2 0 -1
3030 2 1.6867985994449462e+01 7.0261855488426885e+00 7.4662173283031485e-01 0 -1 0
1858 2 8.9585622246913115e+00 2.2171633247990781e+00 1.4647185144326180e+01 0 2 0
2705 2 3.6201755650713281e+01 -5.5150454195422449e-01 1.0220449906320470e+01 2 0 1
2443 2 2.7148121489432146e+01 1.6000248055032205e+01 6.8062593070355026e-01 0 -1 3
536 1 2.9285898567480864e+01 1.7990367319823871e+01 2.7266213260088610e+00 0 0 1
635 1 3.2373661862477086e+00 2.9986059667481557e-01 1.0476844623666199e+00 0 1 2
1690 1 3.1800807976656184e+01 1.7580150832538838e+01 2.4964691054823169e+00 0 -1 0
3222 2 3.2410751377239379e+01 1.5658006378334473e+01 1.1740601005444327e+00 0 1 0
1945 2 1.7323011257136262e+01 7.9278103919305831e+00 1.8437592818817517e+01 -2 0 0
785 1 3.0287224451684239e+01 1.4925312204621886e+01 4.2140647044288162e+00 -4 1 2
550 1 1.0490728825640964e+01 -7.3413866861180255e-01 -5.2955730864572625e-01 -2 0 1
3034 2 2.9708459347032615e+01 1.5856900037492881e+01 1.8513693290116011e+00 1 -1 2
3038 2 3.0398515378431366e+01 1.7430668401033870e+01 5.7153097353982565e+00 1 0 0
1241 1 3.8270758774344841e+01 1.5881094397488855e+01 2.1678936359394081e+00 2 0 0
2861 2 3.6771557156996352e+01 1.5439865218544824e+01 4.4203866104885385e+00 1 0 0
2122 2 3.5493400703081463e+01 1.6628551222279263e+01 2.0931122580019110e+00 0 1 2
2006 2 3.7862892998326458e+01 1.7729250160127659e+01 -5.2105892262397369e-02 1 -1 2
197 1 3.6888179469646630e+01 1.5276708042795189e+01 -2.3075516160426313e-01 0 0 -1
3206 2 2.2470162024401560e+01 1.9192171057676472e+01 3.7660081089332631e-01 1 -1 1
2593 2 4.8327111109232037e+00 -5.2158933719868561e-01 6.0855052774581475e+00 1 0 2
3158 2 4.3384652654065392e-01 1.8900927769407847e+00 4.5961217803194261e+00 2 -1 0
1101 1 2.1456143641335217e+00 7.9266634604078412e-01 7.3945716804586787e+00 -1 0 1
2786 2 1.7765211621963783e+00 -2.9847287979661208e-01 5.0459832942230864e+00 0 1 -3
275 1 -6.0167786220779040e-01 -2.5290516598566615e-01 6.3861550011379506e+00 -2 1 2
1565 1 6.8138263151009637e+00 1.3333248587335058e+00 1.0611146348446276e+01 0 0 0
1739 2 5.8403543201986254e+00 1.4039974338831924e+00 3.4424770626962786e+00 -1 1 1
3334 2 7.3971974597868044e+00 1.7341212240148831e+00 6.5498930539284137e+00 3 -1 1
819 1 6.6064110076619906e+00 2.6005672085546978e+00 8.8184191797557947e+00 1 1 0
9 1 7.7626286212995712e+00 -6.3244865530383487e-01 4.6322661243209868e+00 -1 -1 1
1091 1 3.3630696432192888e+00 1.9671887867485269e+00 4.7972166344992333e+00 0 -1 1
649 1 3.9627746974636253e+01 9.9863559890082314e+00 1.1468258287776014e+00 -1 2 0
3175 2 1.0439390125478853e+01 4.6167947231912825e+00 7.8991639718912232e+00 0 1 1
2241 2 1.1207020551160207e+01 1.1952533030707131e+00 6.5927493846862504e+00 0 2 2
3000 2 9.1280087384045743e+00 1.7732670055050272e+00 4.5605901089646004e+00 0 0 2
2348 2 -7.8799718319209733e-02 1.9216876158068562e+01 1.2365337816495563e+01 0 1 1
1459 1 1.0554609306114592e+01 -4.7741794897643075e-02 9.0172236101979522e+00 0 -2 -3
2965 2 9.3277009475053116e+00 2.0717653715447391e+00 8.7162672418564053e+00 1 1 -1
699 1 2.2431588623663327e+01 5.4625029631856767e+00 1.7573995727785785e+01 0 2 0
400 1 3.3685459671971529e+01 1.9084856408954682e+01 1.7254171799641746e+01 0 -1 0
2577 2 3.4814517835092914e+01 1.1344663376131555e+01 1.7223242307787938e+01 -2 1 0
1453 1 1.4360439979034993e+01 2.8906764981739315e+00 5.1376508882158367e+00 2 1 -2
1811 2 1.5776181532481083e+01 1.4563784377426185e+00 7.2274618288436034e+00 0 1 1
835 1 1.3253042870180114e+01 2.8083744480488853e+00 7.4438502454371989e+00 1 3 0
1999 2 1.6744390039667262e+01 1.5213094810793675e+00 4.2110983921744580e+00 0 1 -1
769 1 1.9674321017023892e+01 1.4476339733805421e+00 8.0445270342087394e+00 0 1 -1
1306 1 2.2864414958124861e+01 -5.1363828599478922e-01 1.0210662227857938e+01 -2 0 1
3057 2 2.4787919975990700e+01 1.0192670239213699e+00 7.1656180817769268e+00 1 -1 0
1936 2 1.9708639872984374e+01 1.2211121189428700e+00 5.0992567583799380e+00 -2 2 0
308 1 2.2186445024003223e+01 3.2832514970689575e-01 3.5725541631479754e+00 -3 0 2
2518 2 2.3545665596176391e+01 2.6851776995263794e+00 5.1553204823994676e+00 0 1 2
759 1 2.1970943524660704e+01 7.9447541857928439e-01 6.4638203688067852e+00 1 -1 1
534 1 2.7353035529708194e+01 5.7233766770123937e+00 4.8863934368615318e+00 2 0 0
363 1 2.5037721894078622e+01 1.6238792026606772e+00 3.8418708945859743e+00 0 1 1
908 1 2.6505841548466659e+01 2.5502002598603961e+00 8.3889139787397582e+00 -1 1 2
1761 2 2.7990474479365872e+01 8.8005102789746559e-01 3.7066092608430568e+00 0 1 1
3201 2 2.8345750649757193e+01 1.4308039662294569e+00 6.9982640515784169e+00 -2 -1 1
2633 2 2.6914561725778505e+01 -9.9431315418989685e-01 6.6282490815167394e+00 -1 -1 1
437 1 2.7426175062114456e+01 -2.8719279064875569e-01 9.3744888754883373e+00 0 -2 0
2280 2 3.2760200607253580e+01 -3.1081897508125367e-01 5.8454261189351140e+00 1 2 1
1633 1 3.2407113282110416e+01 3.6541386706191736e-01 8.7765632827605913e+00 1 0 1
249 1 3.1277624565642757e+01 2.2228791439437083e+00 4.9118125626824103e+00 -1 1 4
1448 1 3.6246717660524425e+01 6.0320734468745441e-01 7.6230518762243999e+00 1 -1 1
3415 2 3.4704657719765962e+01 4.6823657734071489e+00 6.1324663036763223e+00 0 0 -2
556 1 5.7719175397464140e+00 -8.5960821701132262e-01 1.8669423092785006e+01 0 0 1
3131 2 3.7548421845423931e+01 3.4033165042863134e+00 7.9016044958025038e+00 0 2 0
1776 2 3.3993926076910554e+01 1.5459791896025401e+01 -8.2535124902635015e-01 -1 1 1
2007 2 3.6529106839056425e+01 8.7312207706808564e-01 5.2091965602037336e+00 2 3 1
1689 1 3.7064356476642729e+01 3.9199709795562319e+00 5.1049540162373406e+00 0 0 -1
1904 2 6.4180189678562538e-02 1.9511673980001665e+00 8.4898396100006899e+00 -2 0 -1
900 1 3.8556094332463061e+01 7.9609374359897433e-01 8.9680769650458938e+00 -1 0 1
3335 2 3.5684430890072875e+01 7.3509209927491703e+00 3.8506331148941575e-01 1 3 2
1704 1 4.5437111038166140e+00 1.4440062850309108e+00 7.7482923112590623e+00 4 2 1
1149 1 2.5582697911634105e+00 8.5814945108003116e+00 4.4601749123882675e+00 2 1 0
1732 2 3.0108634679049597e+00 5.8969748696095774e+00 4.8547003588933784e+00 2 -1 1
1721 1 5.0833122028801148e+00 6.4175167741749490e+00 6.3504988648925460e+00 2 1 -3
1806 2 2.0211631175850489e+00 3.4336540589662086e+00 6.2307539149580835e+00 0 1 0
2370 2 3.6181730790646043e+00 4.8016218531280019e+00 8.0625720045988896e+00 0 3 -2
2592 2 5.8511179217069769e+00 4.0718261809821348e+00 5.1199967023052517e+00 1 1 0
657 1 4.6089850878234593e+00 8.6849210209714780e+00 6.8538466075191682e+00 2 0 -1
1145 1 8.3399908308942052e+00 8.5778165535836131e+00 8.7055011359387162e+00 2 2 1
1957 2 5.6601927724585535e+00 7.8745714264374609e+00 1.0170616976343297e+01 2 2 0
1239 1 6.0807011877756691e+00 4.3220481172926837e+00 7.9815208371592412e+00 0 1 0
2805 2 5.5232793015199144e+00 4.2189549318090220e+00 1.0533205609485561e+01 0 -2 1
2297 2 9.8368633010590347e+00 6.8421006333455949e+00 6.1638554675157913e+00 1 3 0
393 1 1.3493180409559704e+01 1.2978708795182392e+01 9.2711548035390141e+00 -1 0 3
452 1 1.2513137237364511e+01 7.2753940997313400e+00 3.5785039371309821e+00 1 1 2
608 1 1.2353005388203673e+01 7.2744889530913479e+00 5.9093747629450641e+00 -1 -2 1
1446 1 8.1440586058798949e+00 5.2644163033106999e+00 9.1794081940406489e+00 -2 -1 -1
3377 2 1.4688131739118791e+01 8.1989770290839878e+00 5.5581633291958248e+00 1 1 0
1110 1 1.3665186130372060e+01 -7.0932742642545454e-02 5.1187313570597830e+00 -2 -1 1
946 1 1.2890316790077300e+01 7.2349557219663474e-01 9.0604821952526535e+00 -1 0 0
3432 2 1.0186193471496177e+01 7.4237001009615238e+00 9.6850739663171179e+00 1 2 1
1873 2 1.3124789049466280e+01 6.0206141974280367e+00 7.8513174246792712e+00 0 -1 -1
1197 1 1.6433368558040740e+01 7.6959722833449593e+00 7.5368869930825113e+00 -1 0 -1
2228 2 1.5454346671235594e+01 4.8696762389306887e+00 7.3129090496366711e+00 1 -1 2
2121 2 1.8238384394785797e+01 3.4789805035904662e+00 6.4029230526263285e+00 0 0 1
2424 2 1.6455147153432403e+01 5.0111871757327462e+00 4.5748713234890683e+00 1 -1 0
83 1 1.5366064735409779e+01 7.5249456847448695e+00 9.7365128238136389e+00 2 -1 1
1839 2 1.4568374520963074e+01 7.7418352894304583e+00 2.1587286863064050e+00 0 1 0
203 1 1.5586350727489549e+01 1.1262410324988423e+01 6.4414351344650393e+00 0 -1 0
2034 2 1.7807912384897786e+01 3.9283228379316562e+00 9.3076389414483760e+00 -1 0 3
2505 2 2.1241194973864207e+01 3.1190493653683120e+00 7.0978334254887798e+00 0 1 1
2576 2 1.9614057923866195e+01 6.6683249401598363e+00 5.4482547194009276e+00 1 2 -2
2150 2 2.6033583105703546e+01 4.4321685823422117e+00 7.2881055120315867e+00 0 1 -1
563 1 2.1704309757279077e+01 6.0906204356830562e+00 6.4730940796031575e+00 -1 0 0
2741 2 2.3785869417736357e+01 5.2138664916342590e+00 4.5063214599141457e+00 1 -1 -1
2547 2 2.7559412913648028e+01 8.5382189255395371e+00 4.5648040507532297e+00 1 0 1
1288 1 2.5565928174307945e+01 7.4577661963873521e+00 5.6211810044161661e+00 0 -1 -1
1512 1 2.9356865324635731e+01 3.6787216426566349e+00 5.2546202121838581e+00 1 0 0
1330 1 2.1727588533743845e+01 8.8425116114839906e+00 6.4690788141062034e+00 2 1 2
2192 2 2.3881760360006592e+01 7.7014320142831689e+00 7.5081152516760579e+00 -1 1 1
2569 2 2.8854058740004543e+01 4.4663608130319430e+00 8.4473387253404013e+00 0 1 -1
2750 2 3.0359072612373360e+01 7.3419471607203626e+00 8.3111711851406849e+00 -3 1 0
1481 1 2.2877443483648612e+01 6.8249869984278169e+00 1.0516151798064634e+01 1 -1 -2
889 1 2.6797572356426645e+01 2.5458772806910592e+00 5.7799390199439067e+00 -3 0 0
162 1 2.9304368015113901e+01 6.5405226016061748e+00 6.2546656451096201e+00 0 -1 2
3164 2 3.4697709362290183e+01 2.4543299230307212e+00 8.3977174233963421e+00 -1 -1 1
999 1 3.3072160509446533e+01 2.2096193177122672e+00 5.8382069017686797e+00 1 1 2
2700 2 3.1731145234365538e+01 8.7930354845558050e+00 5.4868949353701923e+00 -2 2 2
813 1 3.3156431422863946e+01 6.5890203321798770e+00 5.0423876970953456e+00 1 1 3
3102 2 3.5543954627142924e+01 5.6158539362677260e+00 8.8789083172945684e+00 1 1 0
1889 2 3.7789304977178105e+01 5.6873534003835022e+00 7.2290552369568193e+00 1 -1 0
320 1 4.0818107699092088e-01 7.5645311379504889e+00 5.9866481648001022e+00 1 -1 0
1002 1 -9.7166394405205059e-01 4.0438131004334883e+00 6.4742358494278687e+00 0 -2 0
2478 2 3.8232603698346423e+01 6.2593756672234484e+00 4.5484323781944003e+00 -2 1 -1
398 1 3.9827767061202238e+01 5.9386732835255609e+00 8.2020345488149609e+00 -2 -1 -1
2730 2 3.5621421640697378e+01 6.3767755767836833e+00 3.4241010256197795e+00 1 1 1
498 1 3.8873268891919196e+01 8.4434119259434777e+00 9.2954195008555143e+00 -2 0 1
2512 2 8.4621543410468791e-01 1.0096175611259168e+01 6.0386131507627994e+00 1 -1 0
1688 1 9.1416111512835174e-01 1.4605460124740871e+01 6.1218349881836875e+00 2 3 -2
911 1 2.2803415703933294e+00 1.2155827926760924e+01 6.3204749940761902e+00 -2 -2 0
2164 2 1.4490997644506565e+00 1.3347773884955613e+01 8.4053816884785491e+00 1 0 0
2184 2 2.4605159679601885e+00 7.8865661403371199e+00 7.7446558140308550e+00 1 0 1
1632 1 3.9089598597914218e+01 1.1492440393143424e+01 6.4327240215519144e+00 0 0 0
1935 2 6.5919911221669869e+00 9.7171982961730858e+00 7.6440600163486039e+00 1 0 0
411 1 1.2315778956965136e+01 1.5660026323786649e+01 6.8332051221247498e+00 -1 1 1
2930 2 5.0056200705980309e+00 1.0400986008788109e+01 5.0761544706599384e+00 -1 -1 1
3255 2 5.8725073850971379e+00 1.6327803732438962e+01 5.3613877885157342e+00 -1 0 1
396 1 7.3929267115544111e+00 1.3550591667712753e+01 5.7186484286975281e+00 -1 -1 0
1393 1 1.0795813309980936e+01 1.1796533275641874e+01 2.4351229138863979e+00 1 0 1
2597 2 1.3161161982903456e+01 1.0567218282742136e+01 5.4972610861855005e+00 1 0 4
3220 2 1.0140563534841837e+01 9.7260553555426590e+00 7.7154846394101178e+00 1 0 1
1696 1 1.8352909422931091e+01 1.2645311341742582e+01 7.7250300162622683e+00 3 3 0
1411 1 1.0318519188235207e+01 1.2258754028057240e+01 4.6839013581197859e+00 -1 -1 0
776 1 1.2505250882911236e+01 1.5470699443459452e+01 8.6854465080892460e+00 3 0 0
2687 2 1.1188871410856015e+01 1.2819741893290836e+01 7.3365811315868488e+00 0 0 1
1607 1 1.5775024619636994e+01 1.0452879357018528e+01 3.8831046878837130e+00 1 1 1
1918 2 1.9137083891139984e+01 8.1948761126932581e+00 8.0917175969758759e+00 -1 0 4
2173 2 1.7953406092521206e+01 8.2531539355933248e+00 3.3918037579729932e+00 1 1 -2
1609 1 1.7941587494989985e+01 1.0152256267371438e+01 5.9942939169849332e+00 1 0 1
3194 2 1.8818054740097203e+01 1.4809618029907901e+01 3.0261325548091556e+00 0 -1 0
2823 2 1.7159592719658779e+01 1.3309322989437097e+01 4.9986829397082966e+00 1 1 0
2038 2 1.5123122753818038e+01 9.8524410700701210e+00 8.5276362581525529e+00 -2 -1 -1
479 1 2.0405703312674198e+01 9.4548636687430143e+00 4.7912453959944017e+00 0 -1 1
2739 2 2.4028113272752044e+01 1.4433677457302688e+01 9.4555198685358004e+00 0 1 -1
1938 2 2.0619110663392185e+01 1.0605317983391849e+01 8.8710740422803962e+00 -1 0 1
765 1 2.2024961513094784e+01 1.5083084621302611e+01 8.1605307642766913e+00 1 -1 -2
1491 1 2.3225909793619273e+01 1.2452148797902765e+01 7.9625864559991761e+00 -1 -1 -2
1261 1 2.3743985514009324e+01 1.0370088173006563e+01 9.4862716885883636e+00 1 -1 -5
218 1 2.7410654402532938e+01 1.1132101625926826e+01 5.1717214769163764e+00 1 -1 -1
3256 2 2.5670135478615190e+01 1.2390996097665838e+01 6.4239726987908359e+00 0 0 -3
233 1 2.5066677446783032e+01 1.1880175733185768e+01 9.1426871330441273e+00 -1 1 2